# vtk DataFile Version 3.0
written by Donskoi Andrei
ASCII
DATASET STRUCTURED_GRID
DIMENSIONS 61 221 2
POINTS 26962 double
0 0 0
1 0 0
2 0 0
3 0 0
4 0 0
5 0 0
6 0 0
7 0 0
8 0 0
9 0 0
10 0 0
11 0 0
12 0 0
13 0 0
14 0 0
15 0 0
16 0 0
17 0 0
18 0 0
19 0 0
20 0 0
21 0 0
22 0 0
23 0 0
24 0 0
25 0 0
26 0 0
27 0 0
28 0 0
29 0 0
30 0 0
31 0 0
32 0 0
33 0 0
34 0 0
35 0 0
36 0 0
37 0 0
38 0 0
39 0 0
40 0 0
41 0 0
42 0 0
43 0 0
44 0 0
45 0 0
46 0 0
47 0 0
48 0 0
49 0 0
50 0 0
51 0 0
52 0 0
53 0 0
54 0 0
55 0 0
56 0 0
57 0 0
58 0 0
59 0 0
60 0 0
0 1 0
1 1 0
2 1 0
3 1 0
4 1 0
5 1 0
6 1 0
7 1 0
8 1 0
9 1 0
10 1 0
11 1 0
12 1 0
13 1 0
14 1 0
15 1 0
16 1 0
17 1 0
18 1 0
19 1 0
20 1 0
21 1 0
22 1 0
23 1 0
24 1 0
25 1 0
26 1 0
27 1 0
28 1 0
29 1 0
30 1 0
31 1 0
32 1 0
33 1 0
34 1 0
35 1 0
36 1 0
37 1 0
38 1 0
39 1 0
40 1 0
41 1 0
42 1 0
43 1 0
44 1 0
45 1 0
46 1 0
47 1 0
48 1 0
49 1 0
50 1 0
51 1 0
52 1 0
53 1 0
54 1 0
55 1 0
56 1 0
57 1 0
58 1 0
59 1 0
60 1 0
0 2 0
1 2 0
2 2 0
3 2 0
4 2 0
5 2 0
6 2 0
7 2 0
8 2 0
9 2 0
10 2 0
11 2 0
12 2 0
13 2 0
14 2 0
15 2 0
16 2 0
17 2 0
18 2 0
19 2 0
20 2 0
21 2 0
22 2 0
23 2 0
24 2 0
25 2 0
26 2 0
27 2 0
28 2 0
29 2 0
30 2 0
31 2 0
32 2 0
33 2 0
34 2 0
35 2 0
36 2 0
37 2 0
38 2 0
39 2 0
40 2 0
41 2 0
42 2 0
43 2 0
44 2 0
45 2 0
46 2 0
47 2 0
48 2 0
49 2 0
50 2 0
51 2 0
52 2 0
53 2 0
54 2 0
55 2 0
56 2 0
57 2 0
58 2 0
59 2 0
60 2 0
0 3 0
1 3 0
2 3 0
3 3 0
4 3 0
5 3 0
6 3 0
7 3 0
8 3 0
9 3 0
10 3 0
11 3 0
12 3 0
13 3 0
14 3 0
15 3 0
16 3 0
17 3 0
18 3 0
19 3 0
20 3 0
21 3 0
22 3 0
23 3 0
24 3 0
25 3 0
26 3 0
27 3 0
28 3 0
29 3 0
30 3 0
31 3 0
32 3 0
33 3 0
34 3 0
35 3 0
36 3 0
37 3 0
38 3 0
39 3 0
40 3 0
41 3 0
42 3 0
43 3 0
44 3 0
45 3 0
46 3 0
47 3 0
48 3 0
49 3 0
50 3 0
51 3 0
52 3 0
53 3 0
54 3 0
55 3 0
56 3 0
57 3 0
58 3 0
59 3 0
60 3 0
0 4 0
1 4 0
2 4 0
3 4 0
4 4 0
5 4 0
6 4 0
7 4 0
8 4 0
9 4 0
10 4 0
11 4 0
12 4 0
13 4 0
14 4 0
15 4 0
16 4 0
17 4 0
18 4 0
19 4 0
20 4 0
21 4 0
22 4 0
23 4 0
24 4 0
25 4 0
26 4 0
27 4 0
28 4 0
29 4 0
30 4 0
31 4 0
32 4 0
33 4 0
34 4 0
35 4 0
36 4 0
37 4 0
38 4 0
39 4 0
40 4 0
41 4 0
42 4 0
43 4 0
44 4 0
45 4 0
46 4 0
47 4 0
48 4 0
49 4 0
50 4 0
51 4 0
52 4 0
53 4 0
54 4 0
55 4 0
56 4 0
57 4 0
58 4 0
59 4 0
60 4 0
0 5 0
1 5 0
2 5 0
3 5 0
4 5 0
5 5 0
6 5 0
7 5 0
8 5 0
9 5 0
10 5 0
11 5 0
12 5 0
13 5 0
14 5 0
15 5 0
16 5 0
17 5 0
18 5 0
19 5 0
20 5 0
21 5 0
22 5 0
23 5 0
24 5 0
25 5 0
26 5 0
27 5 0
28 5 0
29 5 0
30 5 0
31 5 0
32 5 0
33 5 0
34 5 0
35 5 0
36 5 0
37 5 0
38 5 0
39 5 0
40 5 0
41 5 0
42 5 0
43 5 0
44 5 0
45 5 0
46 5 0
47 5 0
48 5 0
49 5 0
50 5 0
51 5 0
52 5 0
53 5 0
54 5 0
55 5 0
56 5 0
57 5 0
58 5 0
59 5 0
60 5 0
0 6 0
1 6 0
2 6 0
3 6 0
4 6 0
5 6 0
6 6 0
7 6 0
8 6 0
9 6 0
10 6 0
11 6 0
12 6 0
13 6 0
14 6 0
15 6 0
16 6 0
17 6 0
18 6 0
19 6 0
20 6 0
21 6 0
22 6 0
23 6 0
24 6 0
25 6 0
26 6 0
27 6 0
28 6 0
29 6 0
30 6 0
31 6 0
32 6 0
33 6 0
34 6 0
35 6 0
36 6 0
37 6 0
38 6 0
39 6 0
40 6 0
41 6 0
42 6 0
43 6 0
44 6 0
45 6 0
46 6 0
47 6 0
48 6 0
49 6 0
50 6 0
51 6 0
52 6 0
53 6 0
54 6 0
55 6 0
56 6 0
57 6 0
58 6 0
59 6 0
60 6 0
0 7 0
1 7 0
2 7 0
3 7 0
4 7 0
5 7 0
6 7 0
7 7 0
8 7 0
9 7 0
10 7 0
11 7 0
12 7 0
13 7 0
14 7 0
15 7 0
16 7 0
17 7 0
18 7 0
19 7 0
20 7 0
21 7 0
22 7 0
23 7 0
24 7 0
25 7 0
26 7 0
27 7 0
28 7 0
29 7 0
30 7 0
31 7 0
32 7 0
33 7 0
34 7 0
35 7 0
36 7 0
37 7 0
38 7 0
39 7 0
40 7 0
41 7 0
42 7 0
43 7 0
44 7 0
45 7 0
46 7 0
47 7 0
48 7 0
49 7 0
50 7 0
51 7 0
52 7 0
53 7 0
54 7 0
55 7 0
56 7 0
57 7 0
58 7 0
59 7 0
60 7 0
0 8 0
1 8 0
2 8 0
3 8 0
4 8 0
5 8 0
6 8 0
7 8 0
8 8 0
9 8 0
10 8 0
11 8 0
12 8 0
13 8 0
14 8 0
15 8 0
16 8 0
17 8 0
18 8 0
19 8 0
20 8 0
21 8 0
22 8 0
23 8 0
24 8 0
25 8 0
26 8 0
27 8 0
28 8 0
29 8 0
30 8 0
31 8 0
32 8 0
33 8 0
34 8 0
35 8 0
36 8 0
37 8 0
38 8 0
39 8 0
40 8 0
41 8 0
42 8 0
43 8 0
44 8 0
45 8 0
46 8 0
47 8 0
48 8 0
49 8 0
50 8 0
51 8 0
52 8 0
53 8 0
54 8 0
55 8 0
56 8 0
57 8 0
58 8 0
59 8 0
60 8 0
0 9 0
1 9 0
2 9 0
3 9 0
4 9 0
5 9 0
6 9 0
7 9 0
8 9 0
9 9 0
10 9 0
11 9 0
12 9 0
13 9 0
14 9 0
15 9 0
16 9 0
17 9 0
18 9 0
19 9 0
20 9 0
21 9 0
22 9 0
23 9 0
24 9 0
25 9 0
26 9 0
27 9 0
28 9 0
29 9 0
30 9 0
31 9 0
32 9 0
33 9 0
34 9 0
35 9 0
36 9 0
37 9 0
38 9 0
39 9 0
40 9 0
41 9 0
42 9 0
43 9 0
44 9 0
45 9 0
46 9 0
47 9 0
48 9 0
49 9 0
50 9 0
51 9 0
52 9 0
53 9 0
54 9 0
55 9 0
56 9 0
57 9 0
58 9 0
59 9 0
60 9 0
0 10 0
1 10 0
2 10 0
3 10 0
4 10 0
5 10 0
6 10 0
7 10 0
8 10 0
9 10 0
10 10 0
11 10 0
12 10 0
13 10 0
14 10 0
15 10 0
16 10 0
17 10 0
18 10 0
19 10 0
20 10 0
21 10 0
22 10 0
23 10 0
24 10 0
25 10 0
26 10 0
27 10 0
28 10 0
29 10 0
30 10 0
31 10 0
32 10 0
33 10 0
34 10 0
35 10 0
36 10 0
37 10 0
38 10 0
39 10 0
40 10 0
41 10 0
42 10 0
43 10 0
44 10 0
45 10 0
46 10 0
47 10 0
48 10 0
49 10 0
50 10 0
51 10 0
52 10 0
53 10 0
54 10 0
55 10 0
56 10 0
57 10 0
58 10 0
59 10 0
60 10 0
0 11 0
1 11 0
2 11 0
3 11 0
4 11 0
5 11 0
6 11 0
7 11 0
8 11 0
9 11 0
10 11 0
11 11 0
12 11 0
13 11 0
14 11 0
15 11 0
16 11 0
17 11 0
18 11 0
19 11 0
20 11 0
21 11 0
22 11 0
23 11 0
24 11 0
25 11 0
26 11 0
27 11 0
28 11 0
29 11 0
30 11 0
31 11 0
32 11 0
33 11 0
34 11 0
35 11 0
36 11 0
37 11 0
38 11 0
39 11 0
40 11 0
41 11 0
42 11 0
43 11 0
44 11 0
45 11 0
46 11 0
47 11 0
48 11 0
49 11 0
50 11 0
51 11 0
52 11 0
53 11 0
54 11 0
55 11 0
56 11 0
57 11 0
58 11 0
59 11 0
60 11 0
0 12 0
1 12 0
2 12 0
3 12 0
4 12 0
5 12 0
6 12 0
7 12 0
8 12 0
9 12 0
10 12 0
11 12 0
12 12 0
13 12 0
14 12 0
15 12 0
16 12 0
17 12 0
18 12 0
19 12 0
20 12 0
21 12 0
22 12 0
23 12 0
24 12 0
25 12 0
26 12 0
27 12 0
28 12 0
29 12 0
30 12 0
31 12 0
32 12 0
33 12 0
34 12 0
35 12 0
36 12 0
37 12 0
38 12 0
39 12 0
40 12 0
41 12 0
42 12 0
43 12 0
44 12 0
45 12 0
46 12 0
47 12 0
48 12 0
49 12 0
50 12 0
51 12 0
52 12 0
53 12 0
54 12 0
55 12 0
56 12 0
57 12 0
58 12 0
59 12 0
60 12 0
0 13 0
1 13 0
2 13 0
3 13 0
4 13 0
5 13 0
6 13 0
7 13 0
8 13 0
9 13 0
10 13 0
11 13 0
12 13 0
13 13 0
14 13 0
15 13 0
16 13 0
17 13 0
18 13 0
19 13 0
20 13 0
21 13 0
22 13 0
23 13 0
24 13 0
25 13 0
26 13 0
27 13 0
28 13 0
29 13 0
30 13 0
31 13 0
32 13 0
33 13 0
34 13 0
35 13 0
36 13 0
37 13 0
38 13 0
39 13 0
40 13 0
41 13 0
42 13 0
43 13 0
44 13 0
45 13 0
46 13 0
47 13 0
48 13 0
49 13 0
50 13 0
51 13 0
52 13 0
53 13 0
54 13 0
55 13 0
56 13 0
57 13 0
58 13 0
59 13 0
60 13 0
0 14 0
1 14 0
2 14 0
3 14 0
4 14 0
5 14 0
6 14 0
7 14 0
8 14 0
9 14 0
10 14 0
11 14 0
12 14 0
13 14 0
14 14 0
15 14 0
16 14 0
17 14 0
18 14 0
19 14 0
20 14 0
21 14 0
22 14 0
23 14 0
24 14 0
25 14 0
26 14 0
27 14 0
28 14 0
29 14 0
30 14 0
31 14 0
32 14 0
33 14 0
34 14 0
35 14 0
36 14 0
37 14 0
38 14 0
39 14 0
40 14 0
41 14 0
42 14 0
43 14 0
44 14 0
45 14 0
46 14 0
47 14 0
48 14 0
49 14 0
50 14 0
51 14 0
52 14 0
53 14 0
54 14 0
55 14 0
56 14 0
57 14 0
58 14 0
59 14 0
60 14 0
0 15 0
1 15 0
2 15 0
3 15 0
4 15 0
5 15 0
6 15 0
7 15 0
8 15 0
9 15 0
10 15 0
11 15 0
12 15 0
13 15 0
14 15 0
15 15 0
16 15 0
17 15 0
18 15 0
19 15 0
20 15 0
21 15 0
22 15 0
23 15 0
24 15 0
25 15 0
26 15 0
27 15 0
28 15 0
29 15 0
30 15 0
31 15 0
32 15 0
33 15 0
34 15 0
35 15 0
36 15 0
37 15 0
38 15 0
39 15 0
40 15 0
41 15 0
42 15 0
43 15 0
44 15 0
45 15 0
46 15 0
47 15 0
48 15 0
49 15 0
50 15 0
51 15 0
52 15 0
53 15 0
54 15 0
55 15 0
56 15 0
57 15 0
58 15 0
59 15 0
60 15 0
0 16 0
1 16 0
2 16 0
3 16 0
4 16 0
5 16 0
6 16 0
7 16 0
8 16 0
9 16 0
10 16 0
11 16 0
12 16 0
13 16 0
14 16 0
15 16 0
16 16 0
17 16 0
18 16 0
19 16 0
20 16 0
21 16 0
22 16 0
23 16 0
24 16 0
25 16 0
26 16 0
27 16 0
28 16 0
29 16 0
30 16 0
31 16 0
32 16 0
33 16 0
34 16 0
35 16 0
36 16 0
37 16 0
38 16 0
39 16 0
40 16 0
41 16 0
42 16 0
43 16 0
44 16 0
45 16 0
46 16 0
47 16 0
48 16 0
49 16 0
50 16 0
51 16 0
52 16 0
53 16 0
54 16 0
55 16 0
56 16 0
57 16 0
58 16 0
59 16 0
60 16 0
0 17 0
1 17 0
2 17 0
3 17 0
4 17 0
5 17 0
6 17 0
7 17 0
8 17 0
9 17 0
10 17 0
11 17 0
12 17 0
13 17 0
14 17 0
15 17 0
16 17 0
17 17 0
18 17 0
19 17 0
20 17 0
21 17 0
22 17 0
23 17 0
24 17 0
25 17 0
26 17 0
27 17 0
28 17 0
29 17 0
30 17 0
31 17 0
32 17 0
33 17 0
34 17 0
35 17 0
36 17 0
37 17 0
38 17 0
39 17 0
40 17 0
41 17 0
42 17 0
43 17 0
44 17 0
45 17 0
46 17 0
47 17 0
48 17 0
49 17 0
50 17 0
51 17 0
52 17 0
53 17 0
54 17 0
55 17 0
56 17 0
57 17 0
58 17 0
59 17 0
60 17 0
0 18 0
1 18 0
2 18 0
3 18 0
4 18 0
5 18 0
6 18 0
7 18 0
8 18 0
9 18 0
10 18 0
11 18 0
12 18 0
13 18 0
14 18 0
15 18 0
16 18 0
17 18 0
18 18 0
19 18 0
20 18 0
21 18 0
22 18 0
23 18 0
24 18 0
25 18 0
26 18 0
27 18 0
28 18 0
29 18 0
30 18 0
31 18 0
32 18 0
33 18 0
34 18 0
35 18 0
36 18 0
37 18 0
38 18 0
39 18 0
40 18 0
41 18 0
42 18 0
43 18 0
44 18 0
45 18 0
46 18 0
47 18 0
48 18 0
49 18 0
50 18 0
51 18 0
52 18 0
53 18 0
54 18 0
55 18 0
56 18 0
57 18 0
58 18 0
59 18 0
60 18 0
0 19 0
1 19 0
2 19 0
3 19 0
4 19 0
5 19 0
6 19 0
7 19 0
8 19 0
9 19 0
10 19 0
11 19 0
12 19 0
13 19 0
14 19 0
15 19 0
16 19 0
17 19 0
18 19 0
19 19 0
20 19 0
21 19 0
22 19 0
23 19 0
24 19 0
25 19 0
26 19 0
27 19 0
28 19 0
29 19 0
30 19 0
31 19 0
32 19 0
33 19 0
34 19 0
35 19 0
36 19 0
37 19 0
38 19 0
39 19 0
40 19 0
41 19 0
42 19 0
43 19 0
44 19 0
45 19 0
46 19 0
47 19 0
48 19 0
49 19 0
50 19 0
51 19 0
52 19 0
53 19 0
54 19 0
55 19 0
56 19 0
57 19 0
58 19 0
59 19 0
60 19 0
0 20 0
1 20 0
2 20 0
3 20 0
4 20 0
5 20 0
6 20 0
7 20 0
8 20 0
9 20 0
10 20 0
11 20 0
12 20 0
13 20 0
14 20 0
15 20 0
16 20 0
17 20 0
18 20 0
19 20 0
20 20 0
21 20 0
22 20 0
23 20 0
24 20 0
25 20 0
26 20 0
27 20 0
28 20 0
29 20 0
30 20 0
31 20 0
32 20 0
33 20 0
34 20 0
35 20 0
36 20 0
37 20 0
38 20 0
39 20 0
40 20 0
41 20 0
42 20 0
43 20 0
44 20 0
45 20 0
46 20 0
47 20 0
48 20 0
49 20 0
50 20 0
51 20 0
52 20 0
53 20 0
54 20 0
55 20 0
56 20 0
57 20 0
58 20 0
59 20 0
60 20 0
0 21 0
1 21 0
2 21 0
3 21 0
4 21 0
5 21 0
6 21 0
7 21 0
8 21 0
9 21 0
10 21 0
11 21 0
12 21 0
13 21 0
14 21 0
15 21 0
16 21 0
17 21 0
18 21 0
19 21 0
20 21 0
21 21 0
22 21 0
23 21 0
24 21 0
25 21 0
26 21 0
27 21 0
28 21 0
29 21 0
30 21 0
31 21 0
32 21 0
33 21 0
34 21 0
35 21 0
36 21 0
37 21 0
38 21 0
39 21 0
40 21 0
41 21 0
42 21 0
43 21 0
44 21 0
45 21 0
46 21 0
47 21 0
48 21 0
49 21 0
50 21 0
51 21 0
52 21 0
53 21 0
54 21 0
55 21 0
56 21 0
[...]
POINT_DATA 26962
CELL_DATA 13200
SCALARS k double 3
LOOKUP_TABLE default
1037.09 1037.09 0.103709
2021.43 2021.43 0.202143
538.906 538.906 0.0538906
179.487 179.487 0.0179487
583.964 583.964 0.0583964
90.2023 90.2023 0.00902023
70.5481 70.5481 0.00705481
0.086331 0.086331 8.6331e-06
0.135165 0.135165 1.35165e-05
0.355573 0.355573 3.55573e-05
0.091636 0.091636 9.1636e-06
0.371629 0.371629 3.71629e-05
0.551727 0.551727 5.51727e-05
0.243683 0.243683 2.43683e-05
0.316152 0.316152 3.16152e-05
584.92 584.92 175.476
435.017 435.017 130.505
1810.33 1810.33 543.099
165.61 165.61 0.016561
18.8073 18.8073 0.00188073
11.9629 11.9629 0.00119629
15.609 15.609 0.0015609
8.19618 8.19618 0.000819618
18.3328 18.3328 0.00183328
21.665 21.665 0.0021665
19.6686 19.6686 0.00196686
31.82 31.82 0.003182
209.017 209.017 62.7051
602.651 602.651 0.0602651
293.473 293.473 88.0419
90.9319 90.9319 27.2796
188.231 188.231 56.4693
555.322 555.322 166.597
405.727 405.727 121.718
225.18 225.18 0.022518
99.6669 99.6669 0.00996669
506.567 506.567 0.0506567
350.518 350.518 0.0350518
902.734 902.734 0.0902734
83.047 83.047 0.0083047
1244.78 1244.78 373.434
7533.16 7533.16 2259.95
0.119826 0.119826 1.19826e-05
0.108813 0.108813 1.08813e-05
0.223737 0.223737 2.23737e-05
0.228106 0.228106 2.28106e-05
0.071211 0.071211 7.1211e-06
0.114632 0.114632 1.14632e-05
0.133163 0.133163 1.33163e-05
0.070906 0.070906 7.0906e-06
0.074676 0.074676 7.4676e-06
76.6279 76.6279 0.00766279
256.006 256.006 0.0256006
72.7324 72.7324 0.00727324
246.649 246.649 73.9947
278.789 278.789 83.6367
687.395 687.395 206.218
727.444 727.444 218.233
1416.03 1416.03 424.809
640.52 640.52 192.156
0.30816 0.30816 3.0816e-05
0.30816 0.30816 3.0816e-05
638.089 638.089 0.0638089
983.033 983.033 0.0983033
199.333 199.333 0.0199333
449.082 449.082 0.0449082
73.9632 73.9632 0.00739632
78.9434 78.9434 0.00789434
34.4235 34.4235 0.00344235
0.05623 0.05623 5.623e-06
0.186981 0.186981 1.86981e-05
0.173282 0.173282 1.73282e-05
0.216482 0.216482 2.16482e-05
0.109248 0.109248 1.09248e-05
0.080796 0.080796 8.0796e-06
0.119125 0.119125 1.19125e-05
0.219386 0.219386 2.19386e-05
0.338655 0.338655 3.38655e-05
0.122083 0.122083 1.22083e-05
0.026506 0.026506 2.6506e-06
8.2881 8.2881 0.00082881
11.8557 11.8557 0.00118557
13.2871 13.2871 0.00132871
0.221375 0.221375 2.21375e-05
0.225172 0.225172 2.25172e-05
0.068923 0.068923 6.8923e-06
723.797 723.797 0.0723797
117.891 117.891 0.0117891
176.125 176.125 52.8375
469.287 469.287 140.786
270.672 270.672 81.2016
115.388 115.388 34.6164
211.688 211.688 63.5064
51.9548 51.9548 0.00519548
692.466 692.466 0.0692466
363.234 363.234 0.0363234
131.026 131.026 0.0131026
364.396 364.396 0.0364396
136.227 136.227 0.0136227
487.378 487.378 0.0487378
55.6547 55.6547 0.00556547
2647.47 2647.47 794.241
4236.49 4236.49 1270.95
0.349198 0.349198 3.49198e-05
0.222227 0.222227 2.22227e-05
0.055387 0.055387 5.5387e-06
0.09109 0.09109 9.109e-06
0.072973 0.072973 7.2973e-06
0.080322 0.080322 8.0322e-06
0.260001 0.260001 2.60001e-05
0.47348 0.47348 4.7348e-05
0.09138 0.09138 9.138e-06
0.022375 0.022375 2.2375e-06
164.581 164.581 0.0164581
212.042 212.042 63.6126
405.127 405.127 121.538
375.2 375.2 112.56
479.537 479.537 0.0479537
1298.32 1298.32 389.496
1081.95 1081.95 324.585
542.941 542.941 162.882
0.242612 0.242612 2.42612e-05
0.242612 0.242612 2.42612e-05
315.926 315.926 0.0315926
1726.18 1726.18 0.172618
167.878 167.878 0.0167878
386.134 386.134 0.0386134
160.695 160.695 0.0160695
43.7647 43.7647 0.00437647
49.3837 49.3837 0.00493837
82.0287 82.0287 0.00820287
120.318 120.318 0.0120318
0.096768 0.096768 9.6768e-06
0.043567 0.043567 4.3567e-06
0.311464 0.311464 3.11464e-05
0.126749 0.126749 1.26749e-05
0.156427 0.156427 1.56427e-05
0.02094 0.02094 2.094e-06
0.307819 0.307819 3.07819e-05
0.788118 0.788118 7.88118e-05
0.082124 0.082124 8.2124e-06
0.037912 0.037912 3.7912e-06
0.081563 0.081563 8.1563e-06
0.052206 0.052206 5.2206e-06
0.109443 0.109443 1.09443e-05
0.117966 0.117966 1.17966e-05
794.421 794.421 0.0794421
547.71 547.71 164.313
102.053 102.053 30.6159
195.415 195.415 58.6245
476.424 476.424 142.927
358.631 358.631 107.589
107.063 107.063 32.1189
378.429 378.429 0.0378429
96.8241 96.8241 0.00968241
75.5872 75.5872 0.00755872
521.749 521.749 0.0521749
133.642 133.642 0.0133642
359.437 359.437 0.0359437
103.764 103.764 0.0103764
196.951 196.951 0.0196951
190.263 190.263 57.0789
128.128 128.128 0.0128128
8909.6 8909.6 0.89096
6059.1 6059.1 0.60591
0.145177 0.145177 1.45177e-05
0.01624 0.01624 1.624e-06
0.008405 0.008405 8.405e-07
0.013851 0.013851 1.3851e-06
0.050278 0.050278 5.0278e-06
0.232584 0.232584 2.32584e-05
0.67924 0.67924 6.7924e-05
0.129437 0.129437 1.29437e-05
0.062972 0.062972 6.2972e-06
0.083328 0.083328 8.3328e-06
131.125 131.125 0.0131125
480.615 480.615 0.0480615
674.128 674.128 202.238
370.095 370.095 0.0370095
1797.52 1797.52 539.256
1778.32 1778.32 533.496
2128.61 2128.61 638.583
0.347325 0.347325 3.47325e-05
0.347325 0.347325 3.47325e-05
0.501045 0.501045 5.01045e-05
0.318044 0.318044 3.18044e-05
304.858 304.858 0.0304858
326.751 326.751 0.0326751
114.259 114.259 0.0114259
43.451 43.451 0.0043451
45.7722 45.7722 0.00457722
45.8782 45.8782 0.00458782
88.6874 88.6874 0.00886874
108.001 108.001 0.0108001
463.299 463.299 138.99
0.080248 0.080248 8.0248e-06
0.057579 0.057579 5.7579e-06
0.31794 0.31794 3.1794e-05
0.101408 0.101408 1.01408e-05
0.235233 0.235233 2.35233e-05
0.11312 0.11312 1.1312e-05
0.038681 0.038681 3.8681e-06
0.04689 0.04689 4.689e-06
0.176014 0.176014 1.76014e-05
0.640641 0.640641 6.40641e-05
0.072023 0.072023 7.2023e-06
0.166537 0.166537 1.66537e-05
495.697 495.697 0.0495697
689.777 689.777 206.933
217.428 217.428 65.2284
208.965 208.965 62.6895
2912.83 2912.83 0.291283
855.215 855.215 0.0855215
160.052 160.052 0.0160052
33.6034 33.6034 0.00336034
268.417 268.417 0.0268417
360.727 360.727 108.218
754.496 754.496 226.349
151.093 151.093 0.0151093
295.02 295.02 0.029502
62.5185 62.5185 0.00625185
111.512 111.512 0.0111512
202.394 202.394 60.7182
210.756 210.756 0.0210756
116.586 116.586 0.0116586
3331.3 3331.3 0.33313
6298.79 6298.79 0.629879
0.136388 0.136388 1.36388e-05
0.061122 0.061122 6.1122e-06
0.017127 0.017127 1.7127e-06
0.082018 0.082018 8.2018e-06
0.110852 0.110852 1.10852e-05
0.026108 0.026108 2.6108e-06
0.391504 0.391504 3.91504e-05
0.09208 0.09208 9.208e-06
0.077515 0.077515 7.7515e-06
233.987 233.987 0.0233987
384.197 384.197 0.0384197
653.854 653.854 0.0653854
709.525 709.525 212.857
3091.78 3091.78 927.534
4345.67 4345.67 1303.7
48.251 48.251 0.0048251
0.054819 0.054819 5.4819e-06
0.054819 0.054819 5.4819e-06
0.208974 0.208974 2.08974e-05
0.094255 0.094255 9.4255e-06
0.148519 0.148519 1.48519e-05
0.110174 0.110174 1.10174e-05
5.73118 5.73118 1.71935
7.91541 7.91541 2.37462
11.5777 11.5777 0.00115777
24.3953 24.3953 0.00243953
131.419 131.419 0.0131419
122.49 122.49 0.012249
443.354 443.354 0.0443354
238.848 238.848 71.6544
142.845 142.845 42.8535
248.124 248.124 74.4372
0.149782 0.149782 1.49782e-05
0.090508 0.090508 9.0508e-06
0.067674 0.067674 6.7674e-06
0.047566 0.047566 4.7566e-06
0.133584 0.133584 1.33584e-05
0.530057 0.530057 5.30057e-05
0.756841 0.756841 7.56841e-05
0.150404 0.150404 1.50404e-05
0.057971 0.057971 5.7971e-06
0.11458 0.11458 1.1458e-05
524.66 524.66 0.052466
1836.99 1836.99 0.183699
2516.28 2516.28 754.884
5498.05 5498.05 0.549805
2039.68 2039.68 0.203968
146.18 146.18 0.014618
35.8769 35.8769 0.00358769
52.1038 52.1038 0.00521038
110.465 110.465 33.1395
527.595 527.595 158.279
205.971 205.971 0.0205971
128.537 128.537 0.0128537
119.477 119.477 0.0119477
119.886 119.886 0.0119886
305.261 305.261 91.5783
149.917 149.917 0.0149917
1360.61 1360.61 0.136061
3183.14 3183.14 0.318314
4094.44 4094.44 1228.33
7348.93 7348.93 0.734893
0.043336 0.043336 4.3336e-06
0.074272 0.074272 7.4272e-06
0.08156 0.08156 8.156e-06
0.080254 0.080254 8.0254e-06
0.101162 0.101162 1.01162e-05
0.612865 0.612865 6.12865e-05
0.155455 0.155455 1.55455e-05
0.1207 0.1207 1.207e-05
187.979 187.979 0.0187979
942.27 942.27 282.681
837.197 837.197 0.0837197
504.959 504.959 151.488
1844.61 1844.61 553.383
3246.5 3246.5 973.95
90.6139 90.6139 0.00906139
0.288421 0.288421 2.88421e-05
0.288421 0.288421 2.88421e-05
59.8352 59.8352 17.9506
19.5979 19.5979 0.00195979
33.2474 33.2474 9.97422
14.1686 14.1686 0.00141686
6.78493 6.78493 0.000678493
13.9822 13.9822 4.19466
11.319 11.319 0.0011319
13.5625 13.5625 0.00135625
170.489 170.489 0.0170489
213.466 213.466 0.0213466
102.647 102.647 30.7941
100.327 100.327 30.0981
219.3 219.3 65.79
595.095 595.095 178.529
0.123597 0.123597 1.23597e-05
0.095568 0.095568 9.5568e-06
0.365539 0.365539 3.65539e-05
0.418693 0.418693 4.18693e-05
0.184559 0.184559 1.84559e-05
0.120112 0.120112 1.20112e-05
0.04634 0.04634 4.634e-06
0.044852 0.044852 4.4852e-06
0.035692 0.035692 3.5692e-06
0.099767 0.099767 9.9767e-06
595.417 595.417 0.0595417
172.72 172.72 0.017272
167.671 167.671 50.3013
9778.18 9778.18 2933.45
910.34 910.34 0.091034
205.429 205.429 0.0205429
42.4972 42.4972 0.00424972
22.599 22.599 0.0022599
125.651 125.651 37.6953
391.056 391.056 0.0391056
102.148 102.148 0.0102148
86.3283 86.3283 0.00863283
112.969 112.969 0.0112969
208.039 208.039 62.4117
215.081 215.081 64.5243
200.947 200.947 60.2841
156.967 156.967 0.0156967
1518.41 1518.41 0.151841
6095.62 6095.62 0.609562
11663.3 11663.3 1.16633
3219.85 3219.85 0.321985
0.108148 0.108148 1.08148e-05
0.065862 0.065862 6.5862e-06
0.270138 0.270138 2.70138e-05
0.168672 0.168672 1.68672e-05
0.309543 0.309543 3.09543e-05
0.432328 0.432328 4.32328e-05
0.182272 0.182272 1.82272e-05
0.21756 0.21756 2.1756e-05
2621.52 2621.52 786.456
1321.77 1321.77 0.132177
746.698 746.698 224.009
1244.95 1244.95 373.485
48.716 48.716 0.0048716
83.9632 83.9632 25.189
0.115147 0.115147 1.15147e-05
0.115147 0.115147 1.15147e-05
35.5057 35.5057 10.6517
15.9187 15.9187 4.77561
51.4683 51.4683 15.4405
18.6247 18.6247 5.58741
6.16947 6.16947 0.000616947
27.6429 27.6429 0.00276429
15.9381 15.9381 0.00159381
30.1005 30.1005 0.00301005
207.302 207.302 0.0207302
0.055013 0.055013 5.5013e-06
0.021993 0.021993 2.1993e-06
0.023119 0.023119 2.3119e-06
0.024623 0.024623 2.4623e-06
0.062385 0.062385 6.2385e-06
0.087036 0.087036 8.7036e-06
0.233651 0.233651 2.33651e-05
0.130465 0.130465 1.30465e-05
0.061611 0.061611 6.1611e-06
0.048416 0.048416 4.8416e-06
0.133287 0.133287 1.33287e-05
0.115642 0.115642 1.15642e-05
0.077047 0.077047 7.7047e-06
0.032536 0.032536 3.2536e-06
0.018113 0.018113 1.8113e-06
0.049681 0.049681 4.9681e-06
310.505 310.505 0.0310505
135.504 135.504 40.6512
5821.15 5821.15 1746.34
780.24 780.24 0.078024
88.4523 88.4523 0.00884523
44.6847 44.6847 0.00446847
46.3714 46.3714 0.00463714
130.935 130.935 0.0130935
241.226 241.226 0.0241226
6964.79 6964.79 2089.44
50.6331 50.6331 0.00506331
62.1726 62.1726 0.00621726
150.57 150.57 45.171
56.0694 56.0694 16.8208
34.188 34.188 0.0034188
58.0411 58.0411 0.00580411
327.914 327.914 0.0327914
3710.85 3710.85 0.371085
2836.18 2836.18 0.283618
2742.77 2742.77 0.274277
707.129 707.129 0.0707129
0.065212 0.065212 6.5212e-06
0.159622 0.159622 1.59622e-05
0.030919 0.030919 3.0919e-06
1.03865 1.03865 0.000103865
0.588399 0.588399 5.88399e-05
0.506266 0.506266 5.06266e-05
0.17486 0.17486 1.7486e-05
0.304159 0.304159 3.04159e-05
1508.41 1508.41 452.523
1379.74 1379.74 413.922
799.314 799.314 239.794
1526.06 1526.06 457.818
241.244 241.244 72.3732
0.097511 0.097511 9.7511e-06
0.097511 0.097511 9.7511e-06
17.8641 17.8641 5.35923
15.3383 15.3383 4.60149
50.3402 50.3402 15.1021
25.0265 25.0265 7.50795
20.1384 20.1384 6.04152
23.0445 23.0445 6.91335
14.5537 14.5537 4.36611
33.5221 33.5221 10.0566
228.769 228.769 68.6307
0.008442 0.008442 8.442e-07
0.006726 0.006726 6.726e-07
0.01864 0.01864 1.864e-06
0.038827 0.038827 3.8827e-06
0.060812 0.060812 6.0812e-06
0.06259 0.06259 6.259e-06
0.079416 0.079416 7.9416e-06
0.149099 0.149099 1.49099e-05
0.034103 0.034103 3.4103e-06
0.016918 0.016918 1.6918e-06
0.018475 0.018475 1.8475e-06
0.035297 0.035297 3.5297e-06
0.123549 0.123549 1.23549e-05
0.035068 0.035068 3.5068e-06
0.244958 0.244958 2.44958e-05
0.408179 0.408179 4.08179e-05
0.127058 0.127058 1.27058e-05
0.414703 0.414703 4.14703e-05
191.607 191.607 57.4821
455.901 455.901 0.0455901
55.4703 55.4703 16.6411
66.6293 66.6293 0.00666293
51.9614 51.9614 0.00519614
165.892 165.892 0.0165892
1948.36 1948.36 584.508
2395.81 2395.81 718.743
52.8449 52.8449 0.00528449
88.9682 88.9682 0.00889682
93.6543 93.6543 28.0963
116.025 116.025 34.8075
33.7817 33.7817 0.00337817
67.4045 67.4045 0.00674045
408.382 408.382 0.0408382
165.999 165.999 0.0165999
1593.23 1593.23 0.159323
981.741 981.741 0.0981741
624.567 624.567 0.0624567
0.089651 0.089651 8.9651e-06
0.08142 0.08142 8.142e-06
0.055919 0.055919 5.5919e-06
0.080068 0.080068 8.0068e-06
0.194001 0.194001 1.94001e-05
0.040053 0.040053 4.0053e-06
0.686133 0.686133 6.86133e-05
0.439748 0.439748 4.39748e-05
1381.63 1381.63 414.489
1614.5 1614.5 484.35
1266.06 1266.06 379.818
928.809 928.809 278.643
305.215 305.215 91.5645
40.4144 40.4144 12.1243
40.4144 40.4144 12.1243
23.406 23.406 7.0218
27.0153 27.0153 8.10459
23.6687 23.6687 7.10061
16.3389 16.3389 4.90167
16.6997 16.6997 5.00991
7.33955 7.33955 2.20186
16.1336 16.1336 4.84008
29.4014 29.4014 8.82042
146.918 146.918 44.0754
0.022274 0.022274 2.2274e-06
0.014807 0.014807 1.4807e-06
0.083611 0.083611 8.3611e-06
0.167855 0.167855 1.67855e-05
0.027266 0.027266 2.7266e-06
0.161682 0.161682 1.61682e-05
690.247 690.247 0.0690247
767.789 767.789 0.0767789
0.143539 0.143539 1.43539e-05
0.019317 0.019317 1.9317e-06
0.029768 0.029768 2.9768e-06
0.044772 0.044772 4.4772e-06
0.30847 0.30847 3.0847e-05
0.115802 0.115802 1.15802e-05
0.207343 0.207343 2.07343e-05
0.330056 0.330056 3.30056e-05
0.179318 0.179318 1.79318e-05
0.163288 0.163288 1.63288e-05
0.022385 0.022385 2.2385e-06
246.972 246.972 0.0246972
68.8153 68.8153 0.00688153
93.6419 93.6419 0.00936419
91.0763 91.0763 0.00910763
4409.2 4409.2 0.44092
2317.19 2317.19 0.231719
92.5933 92.5933 0.00925933
75.2591 75.2591 0.00752591
188.733 188.733 56.6199
58.5462 58.5462 17.5639
124.511 124.511 37.3533
16.4269 16.4269 0.00164269
75.0036 75.0036 0.00750036
113.592 113.592 0.0113592
45.1003 45.1003 0.00451003
19.346 19.346 0.0019346
588.284 588.284 0.0588284
0.02425 0.02425 2.425e-06
0.04053 0.04053 4.053e-06
0.19797 0.19797 1.9797e-05
0.04722 0.04722 4.722e-06
0.144077 0.144077 1.44077e-05
0.080817 0.080817 8.0817e-06
0.116617 0.116617 1.16617e-05
0.054154 0.054154 5.4154e-06
0.056569 0.056569 5.6569e-06
1871.52 1871.52 0.187152
2062.22 2062.22 618.666
1437.46 1437.46 431.238
1814.08 1814.08 544.224
1182.51 1182.51 354.753
0.078569 0.078569 7.8569e-06
0.078569 0.078569 7.8569e-06
28.7874 28.7874 8.63622
34.3469 34.3469 10.3041
32.1513 32.1513 9.64539
11.7239 11.7239 3.51717
13.6718 13.6718 4.10154
3.98682 3.98682 1.19605
17.2619 17.2619 5.17857
55.9131 55.9131 0.00559131
100.687 100.687 0.0100687
120.429 120.429 36.1287
57.6757 57.6757 17.3027
776.863 776.863 0.0776863
716.505 716.505 0.0716505
1646.32 1646.32 0.164632
356.145 356.145 0.0356145
691.107 691.107 0.0691107
1317.18 1317.18 0.131718
1987.62 1987.62 0.198762
0.107886 0.107886 1.07886e-05
0.068095 0.068095 6.8095e-06
0.06802 0.06802 6.802e-06
0.039702 0.039702 3.9702e-06
0.133038 0.133038 1.33038e-05
0.041601 0.041601 4.1601e-06
0.140974 0.140974 1.40974e-05
0.145233 0.145233 1.45233e-05
0.134846 0.134846 1.34846e-05
890.287 890.287 0.0890287
207.942 207.942 62.3826
125.22 125.22 0.012522
69.5706 69.5706 0.00695706
165.885 165.885 0.0165885
5851.04 5851.04 0.585104
1830.88 1830.88 0.183088
7874.27 7874.27 0.787427
1754 1754 0.1754
1567.97 1567.97 0.156797
64.9177 64.9177 19.4753
269.961 269.961 80.9883
3075.23 3075.23 922.569
74.9847 74.9847 0.00749847
70.3173 70.3173 0.00703173
11.0767 11.0767 0.00110767
36.4294 36.4294 0.00364294
11.2133 11.2133 3.36399
97.4218 97.4218 0.00974218
0.014724 0.014724 1.4724e-06
0.137022 0.137022 1.37022e-05
0.036954 0.036954 3.6954e-06
0.045305 0.045305 4.5305e-06
0.113971 0.113971 1.13971e-05
0.033388 0.033388 3.3388e-06
0.03274 0.03274 3.274e-06
0.07731 0.07731 7.731e-06
0.047943 0.047943 4.7943e-06
4041.4 4041.4 1212.42
2171.13 2171.13 651.339
1325.96 1325.96 397.788
951.621 951.621 0.0951621
0.046809 0.046809 4.6809e-06
0.046809 0.046809 4.6809e-06
0.08147 0.08147 8.147e-06
31.8211 31.8211 9.54633
58.4683 58.4683 17.5405
29.8246 29.8246 8.94738
33.9846 33.9846 10.1954
6.67368 6.67368 2.0021
6.96317 6.96317 2.08895
11.2331 11.2331 0.00112331
60.3369 60.3369 18.1011
111.06 111.06 33.318
39.925 39.925 11.9775
145.565 145.565 43.6695
282.547 282.547 0.0282547
1312.16 1312.16 0.131216
202.914 202.914 0.0202914
394.377 394.377 0.0394377
1058.07 1058.07 0.105807
1510.99 1510.99 0.151099
0.134942 0.134942 1.34942e-05
0.157763 0.157763 1.57763e-05
0.261698 0.261698 2.61698e-05
0.073243 0.073243 7.3243e-06
0.052227 0.052227 5.2227e-06
0.152272 0.152272 1.52272e-05
0.050983 0.050983 5.0983e-06
0.102405 0.102405 1.02405e-05
0.0439 0.0439 4.39e-06
466.621 466.621 0.0466621
237.798 237.798 71.3394
191.076 191.076 0.0191076
167.349 167.349 0.0167349
312.172 312.172 0.0312172
111.378 111.378 0.0111378
3414.04 3414.04 0.341404
5313.59 5313.59 0.531359
758.577 758.577 0.0758577
2064.25 2064.25 0.206425
13458.9 13458.9 1.34589
330.064 330.064 99.0192
1216.78 1216.78 0.121678
198.292 198.292 0.0198292
77.4634 77.4634 0.00774634
17.9135 17.9135 5.37405
44.623 44.623 0.0044623
13.4973 13.4973 4.04919
21.6463 21.6463 0.00216463
0.021497 0.021497 2.1497e-06
0.141067 0.141067 1.41067e-05
0.020878 0.020878 2.0878e-06
0.04156 0.04156 4.156e-06
0.07536 0.07536 7.536e-06
0.20602 0.20602 2.0602e-05
0.048225 0.048225 4.8225e-06
0.019932 0.019932 1.9932e-06
0.026967 0.026967 2.6967e-06
3278.29 3278.29 983.487
1457.35 1457.35 437.205
630.609 630.609 189.183
1183.51 1183.51 0.118351
0.030175 0.030175 3.0175e-06
0.030175 0.030175 3.0175e-06
0.027624 0.027624 2.7624e-06
0.040559 0.040559 4.0559e-06
31.9229 31.9229 9.57687
31.6278 31.6278 9.48834
18.3976 18.3976 5.51928
8.62985 8.62985 2.58895
8.68737 8.68737 2.60621
4.00299 4.00299 1.2009
29.8482 29.8482 8.95446
77.6546 77.6546 23.2964
17.9837 17.9837 5.39511
43.3915 43.3915 13.0175
473.304 473.304 141.991
188.423 188.423 0.0188423
183.434 183.434 0.0183434
221.783 221.783 0.0221783
372.134 372.134 0.0372134
658.413 658.413 0.0658413
0.160207 0.160207 1.60207e-05
0.240816 0.240816 2.40816e-05
0.063496 0.063496 6.3496e-06
0.053997 0.053997 5.3997e-06
0.044222 0.044222 4.4222e-06
0.135632 0.135632 1.35632e-05
0.080943 0.080943 8.0943e-06
0.023585 0.023585 2.3585e-06
175.01 175.01 0.017501
328.266 328.266 0.0328266
197.755 197.755 0.0197755
115.366 115.366 0.0115366
308.066 308.066 0.0308066
247.233 247.233 0.0247233
127.837 127.837 0.0127837
68.4285 68.4285 0.00684285
72.446 72.446 0.0072446
73.2505 73.2505 0.00732505
5132.67 5132.67 0.513267
7884.4 7884.4 0.78844
2274.82 2274.82 0.227482
3646.96 3646.96 0.364696
101.667 101.667 0.0101667
61.1926 61.1926 18.3578
38.0187 38.0187 11.4056
28.1608 28.1608 8.44824
8.32417 8.32417 2.49725
18.5202 18.5202 0.00185202
24.6791 24.6791 0.00246791
0.100298 0.100298 1.00298e-05
0.024175 0.024175 2.4175e-06
0.032491 0.032491 3.2491e-06
0.173021 0.173021 1.73021e-05
0.079272 0.079272 7.9272e-06
0.02284 0.02284 2.284e-06
0.010018 0.010018 1.0018e-06
405.376 405.376 121.613
1571.64 1571.64 471.492
1094.61 1094.61 328.383
689.704 689.704 206.911
1728.17 1728.17 518.451
0.006433 0.006433 6.433e-07
0.006433 0.006433 6.433e-07
0.001992 0.001992 1.992e-07
0.01304 0.01304 1.304e-06
0.011183 0.011183 1.1183e-06
0.02306 0.02306 2.306e-06
15.2705 15.2705 4.58115
18.4564 18.4564 5.53692
9.02296 9.02296 2.70689
3.82154 3.82154 1.14646
19.4052 19.4052 5.82156
25.3821 25.3821 0.00253821
23.7947 23.7947 7.13841
39.2716 39.2716 11.7815
401.328 401.328 120.398
152.863 152.863 0.0152863
130.223 130.223 0.0130223
408.628 408.628 0.0408628
709.324 709.324 0.0709324
0.067979 0.067979 6.7979e-06
0.420487 0.420487 4.20487e-05